# vtk DataFile Version 2.0
classy_blocks debug output
ASCII

DATASET UNSTRUCTURED_GRID
POINTS 27 float
0 0 0    1 0 0    2 0 0    0 1 0    1 1 0    2 1 0
0 0 1    1 0 1    2 0 1    0 1 1    1 1 1    2 1 1
0 1 2    1 1 2    2 1 2    0 1 3    1 1 3    2 1 3
0 1 4    1 1 4    2 1 4    0 1 5    1 1 5    2 1 5
0 1 6    1 1 6    2 1 6
   
CELLS 11 60

8 0 1 4 3 6 7 10 9
8 1 2 5 4 7 8 11 10
4 6 10 9 12
4 5 11 10 14
6 15 16 17 14 13 12
6 18 15 19 16 20 17
4 22 23 20 19
3 21 22 18
3 22 19 18
2 26 25
1 24

CELL_TYPES 11
12
12
10
10
7
6
9
5
5
3
1

CELL_DATA 11
SCALARS block_ids float 1
LOOKUP_TABLE default
0
1
2
3
4
5
6
7
8
9
10
